1000
Step = 0
Ar      0.000      0.000      0.000 
Ar      0.000      0.000      3.641 
Ar      0.000      0.000      7.281 
Ar      0.000      0.000     10.922 
Ar      0.000      0.000     14.562 
Ar      0.000      0.000     18.203 
Ar      0.000      0.000     21.843 
Ar      0.000      0.000     25.484 
Ar      0.000      0.000     29.124 
Ar      0.000      0.000     32.765 
Ar      0.000      3.641      0.000 
Ar      0.000      3.641      3.641 
Ar      0.000      3.641      7.281 
Ar      0.000      3.641     10.922 
Ar      0.000      3.641     14.562 
Ar      0.000      3.641     18.203 
Ar      0.000      3.641     21.843 
Ar      0.000      3.641     25.484 
Ar      0.000      3.641     29.124 
Ar      0.000      3.641     32.765 
Ar      0.000      7.281      0.000 
Ar      0.000      7.281      3.641 
Ar      0.000      7.281      7.281 
Ar      0.000      7.281     10.922 
Ar      0.000      7.281     14.562 
Ar      0.000      7.281     18.203 
Ar      0.000      7.281     21.843 
Ar      0.000      7.281     25.484 
Ar      0.000      7.281     29.124 
Ar      0.000      7.281     32.765 
Ar      0.000     10.922      0.000 
Ar      0.000     10.922      3.641 
Ar      0.000     10.922      7.281 
Ar      0.000     10.922     10.922 
Ar      0.000     10.922     14.562 
Ar      0.000     10.922     18.203 
Ar      0.000     10.922     21.843 
Ar      0.000     10.922     25.484 
Ar      0.000     10.922     29.124 
Ar      0.000     10.922     32.765 
Ar      0.000     14.562      0.000 
Ar      0.000     14.562      3.641 
Ar      0.000     14.562      7.281 
Ar      0.000     14.562     10.922 
Ar      0.000     14.562     14.562 
Ar      0.000     14.562     18.203 
Ar      0.000     14.562     21.843 
Ar      0.000     14.562     25.484 
Ar      0.000     14.562     29.124 
Ar      0.000     14.562     32.765 
Ar      0.000     18.203      0.000 
Ar      0.000     18.203      3.641 
Ar      0.000     18.203      7.281 
Ar      0.000     18.203     10.922 
Ar      0.000     18.203     14.562 
Ar      0.000     18.203     18.203 
Ar      0.000     18.203     21.843 
Ar      0.000     18.203     25.484 
Ar      0.000     18.203     29.124 
Ar      0.000     18.203     32.765 
Ar      0.000     21.843      0.000 
Ar      0.000     21.843      3.641 
Ar      0.000     21.843      7.281 
Ar      0.000     21.843     10.922 
Ar      0.000     21.843     14.562 
Ar      0.000     21.843     18.203 
Ar      0.000     21.843     21.843 
Ar      0.000     21.843     25.484 
Ar      0.000     21.843     29.124 
Ar      0.000     21.843     32.765 
Ar      0.000     25.484      0.000 
Ar      0.000     25.484      3.641 
Ar      0.000     25.484      7.281 
Ar      0.000     25.484     10.922 
Ar      0.000     25.484     14.562 
Ar      0.000     25.484     18.203 
Ar      0.000     25.484     21.843 
Ar      0.000     25.484     25.484 
Ar      0.000     25.484     29.124 
Ar      0.000     25.484     32.765 
Ar      0.000     29.124      0.000 
Ar      0.000     29.124      3.641 
Ar      0.000     29.124      7.281 
Ar      0.000     29.124     10.922 
Ar      0.000     29.124     14.562 
Ar      0.000     29.124     18.203 
Ar      0.000     29.124     21.843 
Ar      0.000     29.124     25.484 
Ar      0.000     29.124     29.124 
Ar      0.000     29.124     32.765 
Ar      0.000     32.765      0.000 
Ar      0.000     32.765      3.641 
Ar      0.000     32.765      7.281 
Ar      0.000     32.765     10.922 
Ar      0.000     32.765     14.562 
Ar      0.000     32.765     18.203 
Ar      0.000     32.765     21.843 
Ar      0.000     32.765     25.484 
Ar      0.000     32.765     29.124 
Ar      0.000     32.765     32.765 
Ar      3.641      0.000      0.000 
Ar      3.641      0.000      3.641 
Ar      3.641      0.000      7.281 
Ar      3.641      0.000     10.922 
Ar      3.641      0.000     14.562 
Ar      3.641      0.000     18.203 
Ar      3.641      0.000     21.843 
Ar      3.641      0.000     25.484 
Ar      3.641      0.000     29.124 
Ar      3.641      0.000     32.765 
Ar      3.641      3.641      0.000 
Ar      3.641      3.641      3.641 
Ar      3.641      3.641      7.281 
Ar      3.641      3.641     10.922 
Ar      3.641      3.641     14.562 
Ar      3.641      3.641     18.203 
Ar      3.641      3.641     21.843 
Ar      3.641      3.641     25.484 
Ar      3.641      3.641     29.124 
Ar      3.641      3.641     32.765 
Ar      3.641      7.281      0.000 
Ar      3.641      7.281      3.641 
Ar      3.641      7.281      7.281 
Ar      3.641      7.281     10.922 
Ar      3.641      7.281     14.562 
Ar      3.641      7.281     18.203 
Ar      3.641      7.281     21.843 
Ar      3.641      7.281     25.484 
Ar      3.641      7.281     29.124 
Ar      3.641      7.281     32.765 
Ar      3.641     10.922      0.000 
Ar      3.641     10.922      3.641 
Ar      3.641     10.922      7.281 
Ar      3.641     10.922     10.922 
Ar      3.641     10.922     14.562 
Ar      3.641     10.922     18.203 
Ar      3.641     10.922     21.843 
Ar      3.641     10.922     25.484 
Ar      3.641     10.922     29.124 
Ar      3.641     10.922     32.765 
Ar      3.641     14.562      0.000 
Ar      3.641     14.562      3.641 
Ar      3.641     14.562      7.281 
Ar      3.641     14.562     10.922 
Ar      3.641     14.562     14.562 
Ar      3.641     14.562     18.203 
Ar      3.641     14.562     21.843 
Ar      3.641     14.562     25.484 
Ar      3.641     14.562     29.124 
Ar      3.641     14.562     32.765 
Ar      3.641     18.203      0.000 
Ar      3.641     18.203      3.641 
Ar      3.641     18.203      7.281 
Ar      3.641     18.203     10.922 
Ar      3.641     18.203     14.562 
Ar      3.641     18.203     18.203 
Ar      3.641     18.203     21.843 
Ar      3.641     18.203     25.484 
Ar      3.641     18.203     29.124 
Ar      3.641     18.203     32.765 
Ar      3.641     21.843      0.000 
Ar      3.641     21.843      3.641 
Ar      3.641     21.843      7.281 
Ar      3.641     21.843     10.922 
Ar      3.641     21.843     14.562 
Ar      3.641     21.843     18.203 
Ar      3.641     21.843     21.843 
Ar      3.641     21.843     25.484 
Ar      3.641     21.843     29.124 
Ar      3.641     21.843     32.765 
Ar      3.641     25.484      0.000 
Ar      3.641     25.484      3.641 
Ar      3.641     25.484      7.281 
Ar      3.641     25.484     10.922 
Ar      3.641     25.484     14.562 
Ar      3.641     25.484     18.203 
Ar      3.641     25.484     21.843 
Ar      3.641     25.484     25.484 
Ar      3.641     25.484     29.124 
Ar      3.641     25.484     32.765 
Ar      3.641     29.124      0.000 
Ar      3.641     29.124      3.641 
Ar      3.641     29.124      7.281 
Ar      3.641     29.124     10.922 
Ar      3.641     29.124     14.562 
Ar      3.641     29.124     18.203 
Ar      3.641     29.124     21.843 
Ar      3.641     29.124     25.484 
Ar      3.641     29.124     29.124 
Ar      3.641     29.124     32.765 
Ar      3.641     32.765      0.000 
Ar      3.641     32.765      3.641 
Ar      3.641     32.765      7.281 
Ar      3.641     32.765     10.922 
Ar      3.641     32.765     14.562 
Ar      3.641     32.765     18.203 
Ar      3.641     32.765     21.843 
Ar      3.641     32.765     25.484 
Ar      3.641     32.765     29.124 
Ar      3.641     32.765     32.765 
Ar      7.281      0.000      0.000 
Ar      7.281      0.000      3.641 
Ar      7.281      0.000      7.281 
Ar      7.281      0.000     10.922 
Ar      7.281      0.000     14.562 
Ar      7.281      0.000     18.203 
Ar      7.281      0.000     21.843 
Ar      7.281      0.000     25.484 
Ar      7.281      0.000     29.124 
Ar      7.281      0.000     32.765 
Ar      7.281      3.641      0.000 
Ar      7.281      3.641      3.641 
Ar      7.281      3.641      7.281 
Ar      7.281      3.641     10.922 
Ar      7.281      3.641     14.562 
Ar      7.281      3.641     18.203 
Ar      7.281      3.641     21.843 
Ar      7.281      3.641     25.484 
Ar      7.281      3.641     29.124 
Ar      7.281      3.641     32.765 
Ar      7.281      7.281      0.000 
Ar      7.281      7.281      3.641 
Ar      7.281      7.281      7.281 
Ar      7.281      7.281     10.922 
Ar      7.281      7.281     14.562 
Ar      7.281      7.281     18.203 
Ar      7.281      7.281     21.843 
Ar      7.281      7.281     25.484 
Ar      7.281      7.281     29.124 
Ar      7.281      7.281     32.765 
Ar      7.281     10.922      0.000 
Ar      7.281     10.922      3.641 
Ar      7.281     10.922      7.281 
Ar      7.281     10.922     10.922 
Ar      7.281     10.922     14.562 
Ar      7.281     10.922     18.203 
Ar      7.281     10.922     21.843 
Ar      7.281     10.922     25.484 
Ar      7.281     10.922     29.124 
Ar      7.281     10.922     32.765 
Ar      7.281     14.562      0.000 
Ar      7.281     14.562      3.641 
Ar      7.281     14.562      7.281 
Ar      7.281     14.562     10.922 
Ar      7.281     14.562     14.562 
Ar      7.281     14.562     18.203 
Ar      7.281     14.562     21.843 
Ar      7.281     14.562     25.484 
Ar      7.281     14.562     29.124 
Ar      7.281     14.562     32.765 
Ar      7.281     18.203      0.000 
Ar      7.281     18.203      3.641 
Ar      7.281     18.203      7.281 
Ar      7.281     18.203     10.922 
Ar      7.281     18.203     14.562 
Ar      7.281     18.203     18.203 
Ar      7.281     18.203     21.843 
Ar      7.281     18.203     25.484 
Ar      7.281     18.203     29.124 
Ar      7.281     18.203     32.765 
Ar      7.281     21.843      0.000 
Ar      7.281     21.843      3.641 
Ar      7.281     21.843      7.281 
Ar      7.281     21.843     10.922 
Ar      7.281     21.843     14.562 
Ar      7.281     21.843     18.203 
Ar      7.281     21.843     21.843 
Ar      7.281     21.843     25.484 
Ar      7.281     21.843     29.124 
Ar      7.281     21.843     32.765 
Ar      7.281     25.484      0.000 
Ar      7.281     25.484      3.641 
Ar      7.281     25.484      7.281 
Ar      7.281     25.484     10.922 
Ar      7.281     25.484     14.562 
Ar      7.281     25.484     18.203 
Ar      7.281     25.484     21.843 
Ar      7.281     25.484     25.484 
Ar      7.281     25.484     29.124 
Ar      7.281     25.484     32.765 
Ar      7.281     29.124      0.000 
Ar      7.281     29.124      3.641 
Ar      7.281     29.124      7.281 
Ar      7.281     29.124     10.922 
Ar      7.281     29.124     14.562 
Ar      7.281     29.124     18.203 
Ar      7.281     29.124     21.843 
Ar      7.281     29.124     25.484 
Ar      7.281     29.124     29.124 
Ar      7.281     29.124     32.765 
Ar      7.281     32.765      0.000 
Ar      7.281     32.765      3.641 
Ar      7.281     32.765      7.281 
Ar      7.281     32.765     10.922 
Ar      7.281     32.765     14.562 
Ar      7.281     32.765     18.203 
Ar      7.281     32.765     21.843 
Ar      7.281     32.765     25.484 
Ar      7.281     32.765     29.124 
Ar      7.281     32.765     32.765 
Ar     10.922      0.000      0.000 
Ar     10.922      0.000      3.641 
Ar     10.922      0.000      7.281 
Ar     10.922      0.000     10.922 
Ar     10.922      0.000     14.562 
Ar     10.922      0.000     18.203 
Ar     10.922      0.000     21.843 
Ar     10.922      0.000     25.484 
Ar     10.922      0.000     29.124 
Ar     10.922      0.000     32.765 
Ar     10.922      3.641      0.000 
Ar     10.922      3.641      3.641 
Ar     10.922      3.641      7.281 
Ar     10.922      3.641     10.922 
Ar     10.922      3.641     14.562 
Ar     10.922      3.641     18.203 
Ar     10.922      3.641     21.843 
Ar     10.922      3.641     25.484 
Ar     10.922      3.641     29.124 
Ar     10.922      3.641     32.765 
Ar     10.922      7.281      0.000 
Ar     10.922      7.281      3.641 
Ar     10.922      7.281      7.281 
Ar     10.922      7.281     10.922 
Ar     10.922      7.281     14.562 
Ar     10.922      7.281     18.203 
Ar     10.922      7.281     21.843 
Ar     10.922      7.281     25.484 
Ar     10.922      7.281     29.124 
Ar     10.922      7.281     32.765 
Ar     10.922     10.922      0.000 
Ar     10.922     10.922      3.641 
Ar     10.922     10.922      7.281 
Ar     10.922     10.922     10.922 
Ar     10.922     10.922     14.562 
Ar     10.922     10.922     18.203 
Ar     10.922     10.922     21.843 
Ar     10.922     10.922     25.484 
Ar     10.922     10.922     29.124 
Ar     10.922     10.922     32.765 
Ar     10.922     14.562      0.000 
Ar     10.922     14.562      3.641 
Ar     10.922     14.562      7.281 
Ar     10.922     14.562     10.922 
Ar     10.922     14.562     14.562 
Ar     10.922     14.562     18.203 
Ar     10.922     14.562     21.843 
Ar     10.922     14.562     25.484 
Ar     10.922     14.562     29.124 
Ar     10.922     14.562     32.765 
Ar     10.922     18.203      0.000 
Ar     10.922     18.203      3.641 
Ar     10.922     18.203      7.281 
Ar     10.922     18.203     10.922 
Ar     10.922     18.203     14.562 
Ar     10.922     18.203     18.203 
Ar     10.922     18.203     21.843 
Ar     10.922     18.203     25.484 
Ar     10.922     18.203     29.124 
Ar     10.922     18.203     32.765 
Ar     10.922     21.843      0.000 
Ar     10.922     21.843      3.641 
Ar     10.922     21.843      7.281 
Ar     10.922     21.843     10.922 
Ar     10.922     21.843     14.562 
Ar     10.922     21.843     18.203 
Ar     10.922     21.843     21.843 
Ar     10.922     21.843     25.484 
Ar     10.922     21.843     29.124 
Ar     10.922     21.843     32.765 
Ar     10.922     25.484      0.000 
Ar     10.922     25.484      3.641 
Ar     10.922     25.484      7.281 
Ar     10.922     25.484     10.922 
Ar     10.922     25.484     14.562 
Ar     10.922     25.484     18.203 
Ar     10.922     25.484     21.843 
Ar     10.922     25.484     25.484 
Ar     10.922     25.484     29.124 
Ar     10.922     25.484     32.765 
Ar     10.922     29.124      0.000 
Ar     10.922     29.124      3.641 
Ar     10.922     29.124      7.281 
Ar     10.922     29.124     10.922 
Ar     10.922     29.124     14.562 
Ar     10.922     29.124     18.203 
Ar     10.922     29.124     21.843 
Ar     10.922     29.124     25.484 
Ar     10.922     29.124     29.124 
Ar     10.922     29.124     32.765 
Ar     10.922     32.765      0.000 
Ar     10.922     32.765      3.641 
Ar     10.922     32.765      7.281 
Ar     10.922     32.765     10.922 
Ar     10.922     32.765     14.562 
Ar     10.922     32.765     18.203 
Ar     10.922     32.765     21.843 
Ar     10.922     32.765     25.484 
Ar     10.922     32.765     29.124 
Ar     10.922     32.765     32.765 
Ar     14.562      0.000      0.000 
Ar     14.562      0.000      3.641 
Ar     14.562      0.000      7.281 
Ar     14.562      0.000     10.922 
Ar     14.562      0.000     14.562 
Ar     14.562      0.000     18.203 
Ar     14.562      0.000     21.843 
Ar     14.562      0.000     25.484 
Ar     14.562      0.000     29.124 
Ar     14.562      0.000     32.765 
Ar     14.562      3.641      0.000 
Ar     14.562      3.641      3.641 
Ar     14.562      3.641      7.281 
Ar     14.562      3.641     10.922 
Ar     14.562      3.641     14.562 
Ar     14.562      3.641     18.203 
Ar     14.562      3.641     21.843 
Ar     14.562      3.641     25.484 
Ar     14.562      3.641     29.124 
Ar     14.562      3.641     32.765 
Ar     14.562      7.281      0.000 
Ar     14.562      7.281      3.641 
Ar     14.562      7.281      7.281 
Ar     14.562      7.281     10.922 
Ar     14.562      7.281     14.562 
Ar     14.562      7.281     18.203 
Ar     14.562      7.281     21.843 
Ar     14.562      7.281     25.484 
Ar     14.562      7.281     29.124 
Ar     14.562      7.281     32.765 
Ar     14.562     10.922      0.000 
Ar     14.562     10.922      3.641 
Ar     14.562     10.922      7.281 
Ar     14.562     10.922     10.922 
Ar     14.562     10.922     14.562 
Ar     14.562     10.922     18.203 
Ar     14.562     10.922     21.843 
Ar     14.562     10.922     25.484 
Ar     14.562     10.922     29.124 
Ar     14.562     10.922     32.765 
Ar     14.562     14.562      0.000 
Ar     14.562     14.562      3.641 
Ar     14.562     14.562      7.281 
Ar     14.562     14.562     10.922 
Ar     14.562     14.562     14.562 
Ar     14.562     14.562     18.203 
Ar     14.562     14.562     21.843 
Ar     14.562     14.562     25.484 
Ar     14.562     14.562     29.124 
Ar     14.562     14.562     32.765 
Ar     14.562     18.203      0.000 
Ar     14.562     18.203      3.641 
Ar     14.562     18.203      7.281 
Ar     14.562     18.203     10.922 
Ar     14.562     18.203     14.562 
Ar     14.562     18.203     18.203 
Ar     14.562     18.203     21.843 
Ar     14.562     18.203     25.484 
Ar     14.562     18.203     29.124 
Ar     14.562     18.203     32.765 
Ar     14.562     21.843      0.000 
Ar     14.562     21.843      3.641 
Ar     14.562     21.843      7.281 
Ar     14.562     21.843     10.922 
Ar     14.562     21.843     14.562 
Ar     14.562     21.843     18.203 
Ar     14.562     21.843     21.843 
Ar     14.562     21.843     25.484 
Ar     14.562     21.843     29.124 
Ar     14.562     21.843     32.765 
Ar     14.562     25.484      0.000 
Ar     14.562     25.484      3.641 
Ar     14.562     25.484      7.281 
Ar     14.562     25.484     10.922 
Ar     14.562     25.484     14.562 
Ar     14.562     25.484     18.203 
Ar     14.562     25.484     21.843 
Ar     14.562     25.484     25.484 
Ar     14.562     25.484     29.124 
Ar     14.562     25.484     32.765 
Ar     14.562     29.124      0.000 
Ar     14.562     29.124      3.641 
Ar     14.562     29.124      7.281 
Ar     14.562     29.124     10.922 
Ar     14.562     29.124     14.562 
Ar     14.562     29.124     18.203 
Ar     14.562     29.124     21.843 
Ar     14.562     29.124     25.484 
Ar     14.562     29.124     29.124 
Ar     14.562     29.124     32.765 
Ar     14.562     32.765      0.000 
Ar     14.562     32.765      3.641 
Ar     14.562     32.765      7.281 
Ar     14.562     32.765     10.922 
Ar     14.562     32.765     14.562 
Ar     14.562     32.765     18.203 
Ar     14.562     32.765     21.843 
Ar     14.562     32.765     25.484 
Ar     14.562     32.765     29.124 
Ar     14.562     32.765     32.765 
Ar     18.203      0.000      0.000 
Ar     18.203      0.000      3.641 
Ar     18.203      0.000      7.281 
Ar     18.203      0.000     10.922 
Ar     18.203      0.000     14.562 
Ar     18.203      0.000     18.203 
Ar     18.203      0.000     21.843 
Ar     18.203      0.000     25.484 
Ar     18.203      0.000     29.124 
Ar     18.203      0.000     32.765 
Ar     18.203      3.641      0.000 
Ar     18.203      3.641      3.641 
Ar     18.203      3.641      7.281 
Ar     18.203      3.641     10.922 
Ar     18.203      3.641     14.562 
Ar     18.203      3.641     18.203 
Ar     18.203      3.641     21.843 
Ar     18.203      3.641     25.484 
Ar     18.203      3.641     29.124 
Ar     18.203      3.641     32.765 
Ar     18.203      7.281      0.000 
Ar     18.203      7.281      3.641 
Ar     18.203      7.281      7.281 
Ar     18.203      7.281     10.922 
Ar     18.203      7.281     14.562 
Ar     18.203      7.281     18.203 
Ar     18.203      7.281     21.843 
Ar     18.203      7.281     25.484 
Ar     18.203      7.281     29.124 
Ar     18.203      7.281     32.765 
Ar     18.203     10.922      0.000 
Ar     18.203     10.922      3.641 
Ar     18.203     10.922      7.281 
Ar     18.203     10.922     10.922 
Ar     18.203     10.922     14.562 
Ar     18.203     10.922     18.203 
Ar     18.203     10.922     21.843 
Ar     18.203     10.922     25.484 
Ar     18.203     10.922     29.124 
Ar     18.203     10.922     32.765 
Ar     18.203     14.562      0.000 
Ar     18.203     14.562      3.641 
Ar     18.203     14.562      7.281 
Ar     18.203     14.562     10.922 
Ar     18.203     14.562     14.562 
Ar     18.203     14.562     18.203 
Ar     18.203     14.562     21.843 
Ar     18.203     14.562     25.484 
Ar     18.203     14.562     29.124 
Ar     18.203     14.562     32.765 
Ar     18.203     18.203      0.000 
Ar     18.203     18.203      3.641 
Ar     18.203     18.203      7.281 
Ar     18.203     18.203     10.922 
Ar     18.203     18.203     14.562 
Ar     18.203     18.203     18.203 
Ar     18.203     18.203     21.843 
Ar     18.203     18.203     25.484 
Ar     18.203     18.203     29.124 
Ar     18.203     18.203     32.765 
Ar     18.203     21.843      0.000 
Ar     18.203     21.843      3.641 
Ar     18.203     21.843      7.281 
Ar     18.203     21.843     10.922 
Ar     18.203     21.843     14.562 
Ar     18.203     21.843     18.203 
Ar     18.203     21.843     21.843 
Ar     18.203     21.843     25.484 
Ar     18.203     21.843     29.124 
Ar     18.203     21.843     32.765 
Ar     18.203     25.484      0.000 
Ar     18.203     25.484      3.641 
Ar     18.203     25.484      7.281 
Ar     18.203     25.484     10.922 
Ar     18.203     25.484     14.562 
Ar     18.203     25.484     18.203 
Ar     18.203     25.484     21.843 
Ar     18.203     25.484     25.484 
Ar     18.203     25.484     29.124 
Ar     18.203     25.484     32.765 
Ar     18.203     29.124      0.000 
Ar     18.203     29.124      3.641 
Ar     18.203     29.124      7.281 
Ar     18.203     29.124     10.922 
Ar     18.203     29.124     14.562 
Ar     18.203     29.124     18.203 
Ar     18.203     29.124     21.843 
Ar     18.203     29.124     25.484 
Ar     18.203     29.124     29.124 
Ar     18.203     29.124     32.765 
Ar     18.203     32.765      0.000 
Ar     18.203     32.765      3.641 
Ar     18.203     32.765      7.281 
Ar     18.203     32.765     10.922 
Ar     18.203     32.765     14.562 
Ar     18.203     32.765     18.203 
Ar     18.203     32.765     21.843 
Ar     18.203     32.765     25.484 
Ar     18.203     32.765     29.124 
Ar     18.203     32.765     32.765 
Ar     21.843      0.000      0.000 
Ar     21.843      0.000      3.641 
Ar     21.843      0.000      7.281 
Ar     21.843      0.000     10.922 
Ar     21.843      0.000     14.562 
Ar     21.843      0.000     18.203 
Ar     21.843      0.000     21.843 
Ar     21.843      0.000     25.484 
Ar     21.843      0.000     29.124 
Ar     21.843      0.000     32.765 
Ar     21.843      3.641      0.000 
Ar     21.843      3.641      3.641 
Ar     21.843      3.641      7.281 
Ar     21.843      3.641     10.922 
Ar     21.843      3.641     14.562 
Ar     21.843      3.641     18.203 
Ar     21.843      3.641     21.843 
Ar     21.843      3.641     25.484 
Ar     21.843      3.641     29.124 
Ar     21.843      3.641     32.765 
Ar     21.843      7.281      0.000 
Ar     21.843      7.281      3.641 
Ar     21.843      7.281      7.281 
Ar     21.843      7.281     10.922 
Ar     21.843      7.281     14.562 
Ar     21.843      7.281     18.203 
Ar     21.843      7.281     21.843 
Ar     21.843      7.281     25.484 
Ar     21.843      7.281     29.124 
Ar     21.843      7.281     32.765 
Ar     21.843     10.922      0.000 
Ar     21.843     10.922      3.641 
Ar     21.843     10.922      7.281 
Ar     21.843     10.922     10.922 
Ar     21.843     10.922     14.562 
Ar     21.843     10.922     18.203 
Ar     21.843     10.922     21.843 
Ar     21.843     10.922     25.484 
Ar     21.843     10.922     29.124 
Ar     21.843     10.922     32.765 
Ar     21.843     14.562      0.000 
Ar     21.843     14.562      3.641 
Ar     21.843     14.562      7.281 
Ar     21.843     14.562     10.922 
Ar     21.843     14.562     14.562 
Ar     21.843     14.562     18.203 
Ar     21.843     14.562     21.843 
Ar     21.843     14.562     25.484 
Ar     21.843     14.562     29.124 
Ar     21.843     14.562     32.765 
Ar     21.843     18.203      0.000 
Ar     21.843     18.203      3.641 
Ar     21.843     18.203      7.281 
Ar     21.843     18.203     10.922 
Ar     21.843     18.203     14.562 
Ar     21.843     18.203     18.203 
Ar     21.843     18.203     21.843 
Ar     21.843     18.203     25.484 
Ar     21.843     18.203     29.124 
Ar     21.843     18.203     32.765 
Ar     21.843     21.843      0.000 
Ar     21.843     21.843      3.641 
Ar     21.843     21.843      7.281 
Ar     21.843     21.843     10.922 
Ar     21.843     21.843     14.562 
Ar     21.843     21.843     18.203 
Ar     21.843     21.843     21.843 
Ar     21.843     21.843     25.484 
Ar     21.843     21.843     29.124 
Ar     21.843     21.843     32.765 
Ar     21.843     25.484      0.000 
Ar     21.843     25.484      3.641 
Ar     21.843     25.484      7.281 
Ar     21.843     25.484     10.922 
Ar     21.843     25.484     14.562 
Ar     21.843     25.484     18.203 
Ar     21.843     25.484     21.843 
Ar     21.843     25.484     25.484 
Ar     21.843     25.484     29.124 
Ar     21.843     25.484     32.765 
Ar     21.843     29.124      0.000 
Ar     21.843     29.124      3.641 
Ar     21.843     29.124      7.281 
Ar     21.843     29.124     10.922 
Ar     21.843     29.124     14.562 
Ar     21.843     29.124     18.203 
Ar     21.843     29.124     21.843 
Ar     21.843     29.124     25.484 
Ar     21.843     29.124     29.124 
Ar     21.843     29.124     32.765 
Ar     21.843     32.765      0.000 
Ar     21.843     32.765      3.641 
Ar     21.843     32.765      7.281 
Ar     21.843     32.765     10.922 
Ar     21.843     32.765     14.562 
Ar     21.843     32.765     18.203 
Ar     21.843     32.765     21.843 
Ar     21.843     32.765     25.484 
Ar     21.843     32.765     29.124 
Ar     21.843     32.765     32.765 
Ar     25.484      0.000      0.000 
Ar     25.484      0.000      3.641 
Ar     25.484      0.000      7.281 
Ar     25.484      0.000     10.922 
Ar     25.484      0.000     14.562 
Ar     25.484      0.000     18.203 
Ar     25.484      0.000     21.843 
Ar     25.484      0.000     25.484 
Ar     25.484      0.000     29.124 
Ar     25.484      0.000     32.765 
Ar     25.484      3.641      0.000 
Ar     25.484      3.641      3.641 
Ar     25.484      3.641      7.281 
Ar     25.484      3.641     10.922 
Ar     25.484      3.641     14.562 
Ar     25.484      3.641     18.203 
Ar     25.484      3.641     21.843 
Ar     25.484      3.641     25.484 
Ar     25.484      3.641     29.124 
Ar     25.484      3.641     32.765 
Ar     25.484      7.281      0.000 
Ar     25.484      7.281      3.641 
Ar     25.484      7.281      7.281 
Ar     25.484      7.281     10.922 
Ar     25.484      7.281     14.562 
Ar     25.484      7.281     18.203 
Ar     25.484      7.281     21.843 
Ar     25.484      7.281     25.484 
Ar     25.484      7.281     29.124 
Ar     25.484      7.281     32.765 
Ar     25.484     10.922      0.000 
Ar     25.484     10.922      3.641 
Ar     25.484     10.922      7.281 
Ar     25.484     10.922     10.922 
Ar     25.484     10.922     14.562 
Ar     25.484     10.922     18.203 
Ar     25.484     10.922     21.843 
Ar     25.484     10.922     25.484 
Ar     25.484     10.922     29.124 
Ar     25.484     10.922     32.765 
Ar     25.484     14.562      0.000 
Ar     25.484     14.562      3.641 
Ar     25.484     14.562      7.281 
Ar     25.484     14.562     10.922 
Ar     25.484     14.562     14.562 
Ar     25.484     14.562     18.203 
Ar     25.484     14.562     21.843 
Ar     25.484     14.562     25.484 
Ar     25.484     14.562     29.124 
Ar     25.484     14.562     32.765 
Ar     25.484     18.203      0.000 
Ar     25.484     18.203      3.641 
Ar     25.484     18.203      7.281 
Ar     25.484     18.203     10.922 
Ar     25.484     18.203     14.562 
Ar     25.484     18.203     18.203 
Ar     25.484     18.203     21.843 
Ar     25.484     18.203     25.484 
Ar     25.484     18.203     29.124 
Ar     25.484     18.203     32.765 
Ar     25.484     21.843      0.000 
Ar     25.484     21.843      3.641 
Ar     25.484     21.843      7.281 
Ar     25.484     21.843     10.922 
Ar     25.484     21.843     14.562 
Ar     25.484     21.843     18.203 
Ar     25.484     21.843     21.843 
Ar     25.484     21.843     25.484 
Ar     25.484     21.843     29.124 
Ar     25.484     21.843     32.765 
Ar     25.484     25.484      0.000 
Ar     25.484     25.484      3.641 
Ar     25.484     25.484      7.281 
Ar     25.484     25.484     10.922 
Ar     25.484     25.484     14.562 
Ar     25.484     25.484     18.203 
Ar     25.484     25.484     21.843 
Ar     25.484     25.484     25.484 
Ar     25.484     25.484     29.124 
Ar     25.484     25.484     32.765 
Ar     25.484     29.124      0.000 
Ar     25.484     29.124      3.641 
Ar     25.484     29.124      7.281 
Ar     25.484     29.124     10.922 
Ar     25.484     29.124     14.562 
Ar     25.484     29.124     18.203 
Ar     25.484     29.124     21.843 
Ar     25.484     29.124     25.484 
Ar     25.484     29.124     29.124 
Ar     25.484     29.124     32.765 
Ar     25.484     32.765      0.000 
Ar     25.484     32.765      3.641 
Ar     25.484     32.765      7.281 
Ar     25.484     32.765     10.922 
Ar     25.484     32.765     14.562 
Ar     25.484     32.765     18.203 
Ar     25.484     32.765     21.843 
Ar     25.484     32.765     25.484 
Ar     25.484     32.765     29.124 
Ar     25.484     32.765     32.765 
Ar     29.124      0.000      0.000 
Ar     29.124      0.000      3.641 
Ar     29.124      0.000      7.281 
Ar     29.124      0.000     10.922 
Ar     29.124      0.000     14.562 
Ar     29.124      0.000     18.203 
Ar     29.124      0.000     21.843 
Ar     29.124      0.000     25.484 
Ar     29.124      0.000     29.124 
Ar     29.124      0.000     32.765 